Title: * C:\Dokumente und Einstellungen\Einstein1\Desktop\Michael\Lock-In-Amplifier\rampen-generator.asc
Date: Fri Jun 11 17:09:54 2010
Plotname: Transient Analysis
Flags: real forward
No. Variables: 31
No. Points:            0
Offset:   0.0000000000000000e+000
Command: Linear Technology Corporation LTspice IV
Backannotation: u1 3 2 7 4 6
Backannotation: u2 3 2 7 4 6
Variables:
